# vtk DataFile Version 3.0
vtk output
ASCII
DATASET POLYDATA
POINTS 8 float
-88.3845 8.08 4.54447 -94.0769 12.1603 6.15662 -89.8593 3.99758 10.1017 
-95.3996 7.97071 11.6689 -2.81447 93.65 90.1145 -4.28925 89.5676 95.6717 
-8.50687 97.7303 91.7266 -9.82962 93.5407 97.2389 
VERTICES 2 4
1 0 
1 4 

POLYGONS 4 16
3 0 1 2 
3 1 3 2 
3 5 6 7 
3 5 4 6 

CELL_DATA 6
SCALARS FaceID int 3
LOOKUP_TABLE default
2 0 2 2 0 3 2 0 2 
2 0 2 2 0 3 2 0 3 

