# vtk DataFile Version 3.0
vtk output
ASCII
DATASET POLYDATA
POINTS 20 float
2.77 104.16 5 41.0836 78.6176 5 -2.77 95.84 5 
35.5436 70.2976 5 79.2129 53.1981 5 73.6729 44.8781 5 
114.37 29.76 5 108.83 21.44 5 152.77 4.16 5 
147.23 -4.16 5 2.77 104.16 -5 114.37 29.76 -5 
79.2129 53.1981 -5 152.77 4.16 -5 41.0836 78.6176 -5 
-2.77 95.84 -5 35.5436 70.2976 -5 73.6729 44.8781 -5 
108.83 21.44 -5 147.23 -4.16 -5 
VERTICES 24 48
1 0 
1 0 
1 0 
1 0 
1 10 
1 10 
1 10 
1 10 
1 15 
1 15 
1 15 
1 15 
1 2 
1 2 
1 2 
1 2 
1 2 
1 2 
1 2 
1 2 
1 8 
1 8 
1 8 
1 8 

POLYGONS 36 144
3 0 1 2 
3 1 3 2 
3 3 4 5 
3 5 6 7 
3 7 8 9 
3 7 6 8 
3 5 4 6 
3 3 1 4 
3 10 1 0 
3 11 4 12 
3 11 13 6 
3 4 11 6 
3 6 13 8 
3 4 1 12 
3 1 14 12 
3 1 10 14 
3 15 14 10 
3 16 14 15 
3 14 16 12 
3 12 17 11 
3 11 18 13 
3 13 18 19 
3 11 17 18 
3 12 16 17 
3 2 16 15 
3 7 17 5 
3 7 9 18 
3 17 7 18 
3 18 9 19 
3 17 16 5 
3 16 3 5 
3 16 2 3 
3 2 15 0 
3 15 10 0 
3 8 9 19 
3 13 8 19 

CELL_DATA 60
SCALARS FaceID int 3
LOOKUP_TABLE default
2 0 1 2 0 1 2 0 1 
2 0 1 2 0 2 2 0 2 
2 0 2 2 0 2 2 0 3 
2 0 3 2 0 3 2 0 3 
2 0 4 2 0 4 2 0 4 
2 0 4 2 0 5 2 0 5 
2 0 5 2 0 5 2 0 6 
2 0 6 2 0 6 2 0 6 
2 0 1 2 0 1 2 0 1 
2 0 1 2 0 1 2 0 1 
2 0 1 2 0 1 2 0 2 
2 0 2 2 0 2 2 0 2 
2 0 2 2 0 2 2 0 2 
2 0 2 2 0 3 2 0 3 
2 0 3 2 0 3 2 0 3 
2 0 3 2 0 3 2 0 3 
2 0 4 2 0 4 2 0 4 
2 0 4 2 0 4 2 0 4 
2 0 4 2 0 4 2 0 5 
2 0 5 2 0 6 2 0 6 

